 # Fcc Au oriented X=[-101] Y=[1-21] Z=[111].
 
       39261  atoms
           1  atom types
 
0 64 xlo xhi
0 72 ylo yhi
0 200 zlo zhi
 
Masses
 
            1   196.96656900            # Au
 
Atoms # atomic
 
1 1 28.779245994291998 2.4923558132820003 0.0
2 1 30.218208294007 1.661570542188 2.349815595602
3 1 31.657170593721 2.4923558132820003 0.0
4 1 20.145472196004 7.4770674398459995 0.0
5 1 21.584434495718998 6.646282168752 2.349815595602
6 1 23.023396795434 7.4770674398459995 0.0
7 1 24.462359095148 6.646282168752 2.349815595602
8 1 25.901321394863 7.4770674398459995 0.0
9 1 25.901321394863 4.15392635547 2.349815595602
10 1 24.462359095148 4.984711626564 0.0
11 1 27.340283694577 6.646282168752 2.349815595602
12 1 28.779245994291998 7.4770674398459995 0.0
13 1 28.779245994291998 4.15392635547 2.349815595602
14 1 27.340283694577 4.984711626564 0.0
15 1 30.218208294007 6.646282168752 2.349815595602
16 1 31.657170593721 7.4770674398459995 0.0
17 1 31.657170593721 4.15392635547 2.349815595602
18 1 30.218208294007 4.984711626564 0.0
19 1 33.096132893436 6.646282168752 2.349815595602
20 1 34.535095193151 7.4770674398459995 0.0
21 1 34.535095193151 4.15392635547 2.349815595602
22 1 33.096132893436 4.984711626564 0.0
23 1 35.974057492865 6.646282168752 2.349815595602
24 1 37.41301979258 7.4770674398459995 0.0
25 1 35.974057492865 4.984711626564 0.0
26 1 38.851982092294 6.646282168752 2.349815595602
27 1 40.290944392008996 7.4770674398459995 0.0
28 1 38.851982092294 4.984711626564 0.0
29 1 41.729906691724 6.646282168752 2.349815595602
30 1 43.168868991437996 7.4770674398459995 0.0
31 1 14.389622997146 12.461779066409 0.0
32 1 15.82858529686 11.630993795315 2.349815595602
33 1 17.267547596575 12.461779066409 0.0
34 1 18.706509896289997 11.630993795315 2.349815595602
35 1 20.145472196004 12.461779066409 0.0
36 1 20.145472196004 9.138637982033 2.349815595602
37 1 18.706509896289997 9.969423253127 0.0
38 1 21.584434495718998 11.630993795315 2.349815595602
39 1 23.023396795434 12.461779066409 0.0
40 1 23.023396795434 9.138637982033 2.349815595602
41 1 21.584434495718998 9.969423253127 0.0
42 1 24.462359095148 11.630993795315 2.349815595602
43 1 25.901321394863 12.461779066409 0.0
44 1 25.901321394863 9.138637982033 2.349815595602
45 1 24.462359095148 9.969423253127 0.0
46 1 27.340283694577 11.630993795315 2.349815595602
47 1 28.779245994291998 12.461779066409 0.0
48 1 28.779245994291998 9.138637982033 2.349815595602
49 1 27.340283694577 9.969423253127 0.0
50 1 30.218208294007 11.630993795315 2.349815595602
51 1 31.657170593721 12.461779066409 0.0
52 1 31.657170593721 9.138637982033 2.349815595602
53 1 30.218208294007 9.969423253127 0.0
54 1 33.096132893436 11.630993795315 2.349815595602
55 1 34.535095193151 12.461779066409 0.0
56 1 34.535095193151 9.138637982033 2.349815595602
57 1 33.096132893436 9.969423253127 0.0
58 1 35.974057492865 11.630993795315 2.349815595602
59 1 37.41301979258 12.461779066409 0.0
60 1 37.41301979258 9.138637982033 2.349815595602
61 1 35.974057492865 9.969423253127 0.0
62 1 38.851982092294 11.630993795315 2.349815595602
63 1 40.290944392008996 12.461779066409 0.0
64 1 40.290944392008996 9.138637982033 2.349815595602
65 1 38.851982092294 9.969423253127 0.0
66 1 41.729906691724 11.630993795315 2.349815595602
67 1 43.168868991437996 12.461779066409 0.0
68 1 43.168868991437996 9.138637982033 2.349815595602
69 1 41.729906691724 9.969423253127 0.0
70 1 44.607831291153 11.630993795315 2.349815595602
71 1 46.046793590868 12.461779066409 0.0
72 1 46.046793590868 9.138637982033 2.349815595602
73 1 44.607831291153 9.969423253127 0.0
74 1 47.485755890582 11.630993795315 2.349815595602
75 1 48.924718190297 12.461779066409 0.0
76 1 47.485755890582 9.969423253127 0.0
77 1 50.363680490011 11.630993795315 2.349815595602
78 1 51.802642789726 12.461779066409 0.0
79 1 5.755849198858 17.446490692973 0.0
80 1 7.194811498573001 16.615705421879003 2.349815595602
81 1 8.633773798287 17.446490692973 0.0
82 1 10.072736098002 16.615705421879003 2.349815595602
83 1 11.511698397717 17.446490692973 0.0
84 1 11.511698397717 14.123349608597 2.349815595602
85 1 10.072736098002 14.954134879690999 0.0
86 1 12.950660697431001 16.615705421879003 2.349815595602
87 1 14.389622997146 17.446490692973 0.0
88 1 14.389622997146 14.123349608597 2.349815595602
89 1 12.950660697431001 14.954134879690999 0.0
90 1 15.82858529686 16.615705421879003 2.349815595602
91 1 17.267547596575 17.446490692973 0.0
92 1 17.267547596575 14.123349608597 2.349815595602
93 1 15.82858529686 14.954134879690999 0.0
94 1 18.706509896289997 16.615705421879003 2.349815595602
95 1 20.145472196004 17.446490692973 0.0
96 1 20.145472196004 14.123349608597 2.349815595602
97 1 18.706509896289997 14.954134879690999 0.0
98 1 21.584434495718998 16.615705421879003 2.349815595602
99 1 23.023396795434 17.446490692973 0.0
100 1 23.023396795434 14.123349608597 2.349815595602
101 1 21.584434495718998 14.954134879690999 0.0
102 1 24.462359095148 16.615705421879003 2.349815595602
103 1 25.901321394863 17.446490692973 0.0
104 1 25.901321394863 14.123349608597 2.349815595602
105 1 24.462359095148 14.954134879690999 0.0
106 1 27.340283694577 16.615705421879003 2.349815595602
107 1 28.779245994291998 17.446490692973 0.0
108 1 28.779245994291998 14.123349608597 2.349815595602
109 1 27.340283694577 14.954134879690999 0.0
110 1 30.218208294007 16.615705421879003 2.349815595602
111 1 31.657170593721 17.446490692973 0.0
112 1 31.657170593721 14.123349608597 2.349815595602
113 1 30.218208294007 14.954134879690999 0.0
114 1 33.096132893436 16.615705421879003 2.349815595602
115 1 34.535095193151 17.446490692973 0.0
116 1 34.535095193151 14.123349608597 2.349815595602
117 1 33.096132893436 14.954134879690999 0.0
118 1 35.974057492865 16.615705421879003 2.349815595602
119 1 37.41301979258 17.446490692973 0.0
120 1 37.41301979258 14.123349608597 2.349815595602
121 1 35.974057492865 14.954134879690999 0.0
122 1 38.851982092294 16.615705421879003 2.349815595602
123 1 40.290944392008996 17.446490692973 0.0
124 1 40.290944392008996 14.123349608597 2.349815595602
125 1 38.851982092294 14.954134879690999 0.0
126 1 41.729906691724 16.615705421879003 2.349815595602
127 1 43.168868991437996 17.446490692973 0.0
128 1 43.168868991437996 14.123349608597 2.349815595602
129 1 41.729906691724 14.954134879690999 0.0
130 1 44.607831291153 16.615705421879003 2.349815595602
131 1 46.046793590868 17.446490692973 0.0
132 1 46.046793590868 14.123349608597 2.349815595602
133 1 44.607831291153 14.954134879690999 0.0
134 1 47.485755890582 16.615705421879003 2.349815595602
135 1 48.924718190297 17.446490692973 0.0
136 1 48.924718190297 14.123349608597 2.349815595602
137 1 47.485755890582 14.954134879690999 0.0
138 1 50.363680490011 16.615705421879003 2.349815595602
139 1 51.802642789726 17.446490692973 0.0
140 1 51.802642789726 14.123349608597 2.349815595602
141 1 50.363680490011 14.954134879690999 0.0
142 1 53.241605089441 16.615705421879003 2.349815595602
143 1 54.680567389155 17.446490692973 0.0
144 1 54.680567389155 14.123349608597 2.349815595602
145 1 53.241605089441 14.954134879690999 0.0
146 1 56.119529688869996 16.615705421879003 2.349815595602
147 1 57.558491988585 17.446490692973 0.0
148 1 56.119529688869996 14.954134879690999 0.0
149 1 58.997454288299 16.615705421879003 2.349815595602
150 1 60.436416588014 17.446490692973 0.0
151 1 2.8779245994290004 22.431202319537 0.0
152 1 2.8779245994290004 19.108061235161003 2.349815595602
153 1 4.316886899143 21.600417048443003 2.349815595602
154 1 5.755849198858 22.431202319537 0.0
155 1 5.755849198858 19.108061235161003 2.349815595602
156 1 4.316886899143 19.938846506255 0.0
157 1 7.194811498573001 21.600417048443003 2.349815595602
158 1 8.633773798287 22.431202319537 0.0
159 1 8.633773798287 19.108061235161003 2.349815595602
160 1 7.194811498573001 19.938846506255 0.0
161 1 10.072736098002 21.600417048443003 2.349815595602
162 1 11.511698397717 22.431202319537 0.0
163 1 11.511698397717 19.108061235161003 2.349815595602
164 1 10.072736098002 19.938846506255 0.0
165 1 12.950660697431001 21.600417048443003 2.349815595602
166 1 14.389622997146 22.431202319537 0.0
167 1 14.389622997146 19.108061235161003 2.349815595602
168 1 12.950660697431001 19.938846506255 0.0
169 1 15.82858529686 21.600417048443003 2.349815595602
170 1 17.267547596575 22.431202319537 0.0
171 1 17.267547596575 19.108061235161003 2.349815595602
172 1 15.82858529686 19.938846506255 0.0
173 1 18.706509896289997 21.600417048443003 2.349815595602
174 1 20.145472196004 22.431202319537 0.0
175 1 20.145472196004 19.108061235161003 2.349815595602
176 1 18.706509896289997 19.938846506255 0.0
177 1 21.584434495718998 21.600417048443003 2.349815595602
178 1 23.023396795434 22.431202319537 0.0
179 1 23.023396795434 19.108061235161003 2.349815595602
180 1 21.584434495718998 19.938846506255 0.0
181 1 24.462359095148 21.600417048443003 2.349815595602
182 1 25.901321394863 22.431202319537 0.0
183 1 25.901321394863 19.108061235161003 2.349815595602
184 1 24.462359095148 19.938846506255 0.0
185 1 27.340283694577 21.600417048443003 2.349815595602
186 1 28.779245994291998 22.431202319537 0.0
187 1 28.779245994291998 19.108061235161003 2.349815595602
188 1 27.340283694577 19.938846506255 0.0
189 1 30.218208294007 21.600417048443003 2.349815595602
190 1 31.657170593721 22.431202319537 0.0
191 1 31.657170593721 19.108061235161003 2.349815595602
192 1 30.218208294007 19.938846506255 0.0
193 1 33.096132893436 21.600417048443003 2.349815595602
194 1 34.535095193151 22.431202319537 0.0
195 1 34.535095193151 19.108061235161003 2.349815595602
196 1 33.096132893436 19.938846506255 0.0
197 1 35.974057492865 21.600417048443003 2.349815595602
198 1 37.41301979258 22.431202319537 0.0
199 1 37.41301979258 19.108061235161003 2.349815595602
200 1 35.974057492865 19.938846506255 0.0
201 1 38.851982092294 21.600417048443003 2.349815595602
202 1 40.290944392008996 22.431202319537 0.0
203 1 40.290944392008996 19.108061235161003 2.349815595602
204 1 38.851982092294 19.938846506255 0.0
205 1 41.729906691724 21.600417048443003 2.349815595602
206 1 43.168868991437996 22.431202319537 0.0
207 1 43.168868991437996 19.108061235161003 2.349815595602
208 1 41.729906691724 19.938846506255 0.0
209 1 44.607831291153 21.600417048443003 2.349815595602
210 1 46.046793590868 22.431202319537 0.0
211 1 46.046793590868 19.108061235161003 2.349815595602
212 1 44.607831291153 19.938846506255 0.0
213 1 47.485755890582 21.600417048443003 2.349815595602
214 1 48.924718190297 22.431202319537 0.0
215 1 48.924718190297 19.108061235161003 2.349815595602
216 1 47.485755890582 19.938846506255 0.0
217 1 50.363680490011 21.600417048443003 2.349815595602
218 1 51.802642789726 22.431202319537 0.0
219 1 51.802642789726 19.108061235161003 2.349815595602
220 1 50.363680490011 19.938846506255 0.0
221 1 53.241605089441 21.600417048443003 2.349815595602
222 1 54.680567389155 22.431202319537 0.0
223 1 54.680567389155 19.108061235161003 2.349815595602
224 1 53.241605089441 19.938846506255 0.0
225 1 56.119529688869996 21.600417048443003 2.349815595602
226 1 57.558491988585 22.431202319537 0.0
227 1 57.558491988585 19.108061235161003 2.349815595602
228 1 56.119529688869996 19.938846506255 0.0
229 1 58.997454288299 21.600417048443003 2.349815595602
230 1 60.436416588014 22.431202319537 0.0
231 1 60.436416588014 19.108061235161003 2.349815595602
232 1 58.997454288299 19.938846506255 0.0
233 1 61.875378887728 21.600417048443003 2.349815595602
234 1 61.875378887728 19.938846506255 0.0
235 1 2.8779245994290004 27.415913946101 0.0
236 1 2.8779245994290004 24.092772861725003 2.349815595602
237 1 4.316886899143 26.585128675007002 2.349815595602
238 1 5.755849198858 27.415913946101 0.0
239 1 5.755849198858 24.092772861725003 2.349815595602
240 1 4.316886899143 24.923558132819 0.0
241 1 7.194811498573001 26.585128675007002 2.349815595602
242 1 8.633773798287 27.415913946101 0.0
243 1 8.633773798287 24.092772861725003 2.349815595602
244 1 7.194811498573001 24.923558132819 0.0
245 1 10.072736098002 26.585128675007002 2.349815595602
246 1 11.511698397717 27.415913946101 0.0
247 1 11.511698397717 24.092772861725003 2.349815595602
248 1 10.072736098002 24.923558132819 0.0
249 1 12.950660697431001 26.585128675007002 2.349815595602
250 1 14.389622997146 27.415913946101 0.0
251 1 14.389622997146 24.092772861725003 2.349815595602
252 1 12.950660697431001 24.923558132819 0.0
253 1 15.82858529686 26.585128675007002 2.349815595602
254 1 17.267547596575 27.415913946101 0.0
255 1 17.267547596575 24.092772861725003 2.349815595602
256 1 15.82858529686 24.923558132819 0.0
257 1 18.706509896289997 26.585128675007002 2.349815595602
258 1 20.145472196004 27.415913946101 0.0
259 1 20.145472196004 24.092772861725003 2.349815595602
260 1 18.706509896289997 24.923558132819 0.0
261 1 21.584434495718998 26.585128675007002 2.349815595602
262 1 23.023396795434 27.415913946101 0.0
263 1 23.023396795434 24.092772861725003 2.349815595602
264 1 21.584434495718998 24.923558132819 0.0
265 1 24.462359095148 26.585128675007002 2.349815595602
266 1 25.901321394863 27.415913946101 0.0
267 1 25.901321394863 24.092772861725003 2.349815595602
268 1 24.462359095148 24.923558132819 0.0
269 1 27.340283694577 26.585128675007002 2.349815595602
270 1 28.779245994291998 27.415913946101 0.0
271 1 28.779245994291998 24.092772861725003 2.349815595602
272 1 27.340283694577 24.923558132819 0.0
273 1 30.218208294007 26.585128675007002 2.349815595602
274 1 31.657170593721 27.415913946101 0.0
275 1 31.657170593721 24.092772861725003 2.349815595602
276 1 30.218208294007 24.923558132819 0.0
277 1 33.096132893436 26.585128675007002 2.349815595602
278 1 34.535095193151 27.415913946101 0.0
279 1 34.535095193151 24.092772861725003 2.349815595602
280 1 33.096132893436 24.923558132819 0.0
281 1 35.974057492865 26.585128675007002 2.349815595602
282 1 37.41301979258 27.415913946101 0.0
283 1 37.41301979258 24.092772861725003 2.349815595602
284 1 35.974057492865 24.923558132819 0.0
285 1 38.851982092294 26.585128675007002 2.349815595602
286 1 40.290944392008996 27.415913946101 0.0
287 1 40.290944392008996 24.092772861725003 2.349815595602
288 1 38.851982092294 24.923558132819 0.0
289 1 41.729906691724 26.585128675007002 2.349815595602
290 1 43.168868991437996 27.415913946101 0.0
291 1 43.168868991437996 24.092772861725003 2.349815595602
292 1 41.729906691724 24.923558132819 0.0
293 1 44.607831291153 26.585128675007002 2.349815595602
294 1 46.046793590868 27.415913946101 0.0
295 1 46.046793590868 24.092772861725003 2.349815595602
296 1 44.607831291153 24.923558132819 0.0
297 1 47.485755890582 26.585128675007002 2.349815595602
298 1 48.924718190297 27.415913946101 0.0
299 1 48.924718190297 24.092772861725003 2.349815595602
300 1 47.485755890582 24.923558132819 0.0
301 1 50.363680490011 26.585128675007002 2.349815595602
302 1 51.802642789726 27.415913946101 0.0
303 1 51.802642789726 24.092772861725003 2.349815595602
304 1 50.363680490011 24.923558132819 0.0
305 1 53.241605089441 26.585128675007002 2.349815595602
306 1 54.680567389155 27.415913946101 0.0
307 1 54.680567389155 24.092772861725003 2.349815595602
308 1 53.241605089441 24.923558132819 0.0
309 1 56.119529688869996 26.585128675007002 2.349815595602
310 1 57.558491988585 27.415913946101 0.0
311 1 57.558491988585 24.092772861725003 2.349815595602
312 1 56.119529688869996 24.923558132819 0.0
313 1 58.997454288299 26.585128675007002 2.349815595602
314 1 60.436416588014 27.415913946101 0.0
315 1 60.436416588014 24.092772861725003 2.349815595602
316 1 58.997454288299 24.923558132819 0.0
317 1 61.875378887728 26.585128675007002 2.349815595602
318 1 61.875378887728 24.923558132819 0.0
319 1 2.8779245994290004 32.400625572664 0.0
320 1 2.8779245994290004 29.077484488289002 2.349815595602
321 1 4.316886899143 31.56984030157 2.349815595602
322 1 5.755849198858 32.400625572664 0.0
323 1 5.755849198858 29.077484488289002 2.349815595602
324 1 4.316886899143 29.908269759383 0.0
325 1 7.194811498573001 31.56984030157 2.349815595602
326 1 8.633773798287 32.400625572664 0.0
327 1 8.633773798287 29.077484488289002 2.349815595602
328 1 7.194811498573001 29.908269759383 0.0
329 1 10.072736098002 31.56984030157 2.349815595602
330 1 11.511698397717 32.400625572664 0.0
331 1 11.511698397717 29.077484488289002 2.349815595602
332 1 10.072736098002 29.908269759383 0.0
333 1 12.950660697431001 31.56984030157 2.349815595602
334 1 14.389622997146 32.400625572664 0.0
335 1 14.389622997146 29.077484488289002 2.349815595602
336 1 12.950660697431001 29.908269759383 0.0
337 1 15.82858529686 31.56984030157 2.349815595602
338 1 17.267547596575 32.400625572664 0.0
339 1 17.267547596575 29.077484488289002 2.349815595602
340 1 15.82858529686 29.908269759383 0.0
341 1 18.706509896289997 31.56984030157 2.349815595602
342 1 20.145472196004 32.400625572664 0.0
343 1 20.145472196004 29.077484488289002 2.349815595602
344 1 18.706509896289997 29.908269759383 0.0
345 1 21.584434495718998 31.56984030157 2.349815595602
346 1 23.023396795434 32.400625572664 0.0
347 1 23.023396795434 29.077484488289002 2.349815595602
348 1 21.584434495718998 29.908269759383 0.0
349 1 24.462359095148 31.56984030157 2.349815595602
350 1 25.901321394863 32.400625572664 0.0
351 1 25.901321394863 29.077484488289002 2.349815595602
352 1 24.462359095148 29.908269759383 0.0
353 1 27.340283694577 31.56984030157 2.349815595602
354 1 28.779245994291998 32.400625572664 0.0
355 1 28.779245994291998 29.077484488289002 2.349815595602
356 1 27.340283694577 29.908269759383 0.0
357 1 30.218208294007 31.56984030157 2.349815595602
358 1 31.657170593721 32.400625572664 0.0
359 1 31.657170593721 29.077484488289002 2.349815595602
360 1 30.218208294007 29.908269759383 0.0
361 1 33.096132893436 31.56984030157 2.349815595602
362 1 34.535095193151 32.400625572664 0.0
363 1 34.535095193151 29.077484488289002 2.349815595602
364 1 33.096132893436 29.908269759383 0.0
365 1 35.974057492865 31.56984030157 2.349815595602
366 1 37.41301979258 32.400625572664 0.0
367 1 37.41301979258 29.077484488289002 2.349815595602
368 1 35.974057492865 29.908269759383 0.0
369 1 38.851982092294 31.56984030157 2.349815595602
370 1 40.290944392008996 32.400625572664 0.0
371 1 40.290944392008996 29.077484488289002 2.349815595602
372 1 38.851982092294 29.908269759383 0.0
373 1 41.729906691724 31.56984030157 2.349815595602
374 1 43.168868991437996 32.400625572664 0.0
375 1 43.168868991437996 29.077484488289002 2.349815595602
376 1 41.729906691724 29.908269759383 0.0
377 1 44.607831291153 31.56984030157 2.349815595602
378 1 46.046793590868 32.400625572664 0.0
379 1 46.046793590868 29.077484488289002 2.349815595602
380 1 44.607831291153 29.908269759383 0.0
381 1 47.485755890582 31.56984030157 2.349815595602
382 1 48.924718190297 32.400625572664 0.0
383 1 48.924718190297 29.077484488289002 2.349815595602
384 1 47.485755890582 29.908269759383 0.0
385 1 50.363680490011 31.56984030157 2.349815595602
386 1 51.802642789726 32.400625572664 0.0
387 1 51.802642789726 29.077484488289002 2.349815595602
388 1 50.363680490011 29.908269759383 0.0
389 1 53.241605089441 31.56984030157 2.349815595602
390 1 54.680567389155 32.400625572664 0.0
391 1 54.680567389155 29.077484488289002 2.349815595602
392 1 53.241605089441 29.908269759383 0.0
393 1 56.119529688869996 31.56984030157 2.349815595602
394 1 57.558491988585 32.400625572664 0.0
395 1 57.558491988585 29.077484488289002 2.349815595602
396 1 56.119529688869996 29.908269759383 0.0
397 1 58.997454288299 31.56984030157 2.349815595602
398 1 60.436416588014 32.400625572664 0.0
399 1 60.436416588014 29.077484488289002 2.349815595602
400 1 58.997454288299 29.908269759383 0.0
401 1 61.875378887728 31.56984030157 2.349815595602
402 1 61.875378887728 29.908269759383 0.0
403 1 2.8779245994290004 37.385337199228 0.0
404 1 2.8779245994290004 34.062196114852 2.349815595602
405 1 4.316886899143 36.554551928133996 2.349815595602
406 1 5.755849198858 37.385337199228 0.0
407 1 5.755849198858 34.062196114852 2.349815595602
408 1 4.316886899143 34.892981385946 0.0
409 1 7.194811498573001 36.554551928133996 2.349815595602
410 1 8.633773798287 37.385337199228 0.0
411 1 8.633773798287 34.062196114852 2.349815595602
412 1 7.194811498573001 34.892981385946 0.0
413 1 10.072736098002 36.554551928133996 2.349815595602
414 1 11.511698397717 37.385337199228 0.0
415 1 11.511698397717 34.062196114852 2.349815595602
416 1 10.072736098002 34.892981385946 0.0
417 1 12.950660697431001 36.554551928133996 2.349815595602
418 1 14.389622997146 37.385337199228 0.0
419 1 14.389622997146 34.062196114852 2.349815595602
420 1 12.950660697431001 34.892981385946 0.0
421 1 15.82858529686 36.554551928133996 2.349815595602
422 1 17.267547596575 37.385337199228 0.0
423 1 17.267547596575 34.062196114852 2.349815595602
424 1 15.82858529686 34.892981385946 0.0
425 1 18.706509896289997 36.554551928133996 2.349815595602
426 1 20.145472196004 37.385337199228 0.0
427 1 20.145472196004 34.062196114852 2.349815595602
428 1 18.706509896289997 34.892981385946 0.0
429 1 21.584434495718998 36.554551928133996 2.349815595602
430 1 23.023396795434 37.385337199228 0.0
431 1 23.023396795434 34.062196114852 2.349815595602
432 1 21.584434495718998 34.892981385946 0.0
433 1 24.462359095148 36.554551928133996 2.349815595602
434 1 25.901321394863 37.385337199228 0.0
435 1 25.901321394863 34.062196114852 2.349815595602
436 1 24.462359095148 34.892981385946 0.0
437 1 27.340283694577 36.554551928133996 2.349815595602
438 1 28.779245994291998 37.385337199228 0.0
439 1 28.779245994291998 34.062196114852 2.349815595602
440 1 27.340283694577 34.892981385946 0.0
441 1 30.218208294007 36.554551928133996 2.349815595602
442 1 31.657170593721 37.385337199228 0.0
443 1 31.657170593721 34.062196114852 2.349815595602
444 1 30.218208294007 34.892981385946 0.0
445 1 33.096132893436 36.554551928133996 2.349815595602
446 1 34.535095193151 37.385337199228 0.0
447 1 34.535095193151 34.062196114852 2.349815595602
448 1 33.096132893436 34.892981385946 0.0
449 1 35.974057492865 36.554551928133996 2.349815595602
450 1 37.41301979258 37.385337199228 0.0
451 1 37.41301979258 34.062196114852 2.349815595602
452 1 35.974057492865 34.892981385946 0.0
453 1 38.851982092294 36.554551928133996 2.349815595602
454 1 40.290944392008996 37.385337199228 0.0
455 1 40.290944392008996 34.062196114852 2.349815595602
456 1 38.851982092294 34.892981385946 0.0
457 1 41.729906691724 36.554551928133996 2.349815595602
458 1 43.168868991437996 37.385337199228 0.0
459 1 43.168868991437996 34.062196114852 2.349815595602
460 1 41.729906691724 34.892981385946 0.0
461 1 44.607831291153 36.554551928133996 2.349815595602
462 1 46.046793590868 37.385337199228 0.0
463 1 46.046793590868 34.062196114852 2.349815595602
464 1 44.607831291153 34.892981385946 0.0
465 1 47.485755890582 36.554551928133996 2.349815595602
466 1 48.924718190297 37.385337199228 0.0
467 1 48.924718190297 34.062196114852 2.349815595602
468 1 47.485755890582 34.892981385946 0.0
469 1 50.363680490011 36.554551928133996 2.349815595602
470 1 51.802642789726 37.385337199228 0.0
471 1 51.802642789726 34.062196114852 2.349815595602
472 1 50.363680490011 34.892981385946 0.0
473 1 53.241605089441 36.554551928133996 2.349815595602
474 1 54.680567389155 37.385337199228 0.0
475 1 54.680567389155 34.062196114852 2.349815595602
476 1 53.241605089441 34.892981385946 0.0
477 1 56.119529688869996 36.554551928133996 2.349815595602
478 1 57.558491988585 37.385337199228 0.0
479 1 57.558491988585 34.062196114852 2.349815595602
480 1 56.119529688869996 34.892981385946 0.0
481 1 58.997454288299 36.554551928133996 2.349815595602
482 1 60.436416588014 37.385337199228 0.0
483 1 60.436416588014 34.062196114852 2.349815595602
484 1 58.997454288299 34.892981385946 0.0
485 1 61.875378887728 36.554551928133996 2.349815595602
486 1 61.875378887728 34.892981385946 0.0
487 1 1.438962299714 41.539263554697996 2.349815595602
488 1 2.8779245994290004 42.370048825792 0.0
489 1 2.8779245994290004 39.046907741416 2.349815595602
490 1 1.438962299714 39.87769301251 0.0
491 1 4.316886899143 41.539263554697996 2.349815595602
492 1 5.755849198858 42.370048825792 0.0
493 1 5.755849198858 39.046907741416 2.349815595602
494 1 4.316886899143 39.87769301251 0.0
495 1 7.194811498573001 41.539263554697996 2.349815595602
496 1 8.633773798287 42.370048825792 0.0
497 1 8.633773798287 39.046907741416 2.349815595602
498 1 7.194811498573001 39.87769301251 0.0
499 1 10.072736098002 41.539263554697996 2.349815595602
500 1 11.511698397717 42.370048825792 0.0
501 1 11.511698397717 39.046907741416 2.349815595602
502 1 10.072736098002 39.87769301251 0.0
503 1 12.950660697431001 41.539263554697996 2.349815595602
504 1 14.389622997146 42.370048825792 0.0
505 1 14.389622997146 39.046907741416 2.349815595602
506 1 12.950660697431001 39.87769301251 0.0
507 1 15.82858529686 41.539263554697996 2.349815595602
508 1 17.267547596575 42.370048825792 0.0
509 1 17.267547596575 39.046907741416 2.349815595602
510 1 15.82858529686 39.87769301251 0.0
511 1 18.706509896289997 41.539263554697996 2.349815595602
512 1 20.145472196004 42.370048825792 0.0
513 1 20.145472196004 39.046907741416 2.349815595602
514 1 18.706509896289997 39.87769301251 0.0
515 1 21.584434495718998 41.539263554697996 2.349815595602
516 1 23.023396795434 42.370048825792 0.0
517 1 23.023396795434 39.046907741416 2.349815595602
518 1 21.584434495718998 39.87769301251 0.0
519 1 24.462359095148 41.539263554697996 2.349815595602
520 1 25.901321394863 42.370048825792 0.0
521 1 25.901321394863 39.046907741416 2.349815595602
522 1 24.462359095148 39.87769301251 0.0
523 1 27.340283694577 41.539263554697996 2.349815595602
524 1 28.779245994291998 42.370048825792 0.0
525 1 28.779245994291998 39.046907741416 2.349815595602
526 1 27.340283694577 39.87769301251 0.0
527 1 30.218208294007 41.539263554697996 2.349815595602
528 1 31.657170593721 42.370048825792 0.0
529 1 31.657170593721 39.046907741416 2.349815595602
530 1 30.218208294007 39.87769301251 0.0
531 1 33.096132893436 41.539263554697996 2.349815595602
532 1 34.535095193151 42.370048825792 0.0
533 1 34.535095193151 39.046907741416 2.349815595602
534 1 33.096132893436 39.87769301251 0.0
535 1 35.974057492865 41.539263554697996 2.349815595602
536 1 37.41301979258 42.370048825792 0.0
537 1 37.41301979258 39.046907741416 2.349815595602
538 1 35.974057492865 39.87769301251 0.0
539 1 38.851982092294 41.539263554697996 2.349815595602
540 1 40.290944392008996 42.370048825792 0.0
541 1 40.290944392008996 39.046907741416 2.349815595602
542 1 38.851982092294 39.87769301251 0.0
543 1 41.729906691724 41.539263554697996 2.349815595602
544 1 43.168868991437996 42.370048825792 0.0
545 1 43.168868991437996 39.046907741416 2.349815595602
546 1 41.729906691724 39.87769301251 0.0
547 1 44.607831291153 41.539263554697996 2.349815595602
548 1 46.046793590868 42.370048825792 0.0
549 1 46.046793590868 39.046907741416 2.349815595602
550 1 44.607831291153 39.87769301251 0.0
551 1 47.485755890582 41.539263554697996 2.349815595602
552 1 48.924718190297 42.370048825792 0.0
553 1 48.924718190297 39.046907741416 2.349815595602
554 1 47.485755890582 39.87769301251 0.0
555 1 50.363680490011 41.539263554697996 2.349815595602
556 1 51.802642789726 42.370048825792 0.0
557 1 51.802642789726 39.046907741416 2.349815595602
558 1 50.363680490011 39.87769301251 0.0
559 1 53.241605089441 41.539263554697996 2.349815595602
560 1 54.680567389155 42.370048825792 0.0
561 1 54.680567389155 39.046907741416 2.349815595602
562 1 53.241605089441 39.87769301251 0.0
563 1 56.119529688869996 41.539263554697996 2.349815595602
564 1 57.558491988585 42.370048825792 0.0
565 1 57.558491988585 39.046907741416 2.349815595602
566 1 56.119529688869996 39.87769301251 0.0
567 1 58.997454288299 41.539263554697996 2.349815595602
568 1 60.436416588014 42.370048825792 0.0
569 1 60.436416588014 39.046907741416 2.349815595602
570 1 58.997454288299 39.87769301251 0.0
571 1 61.875378887728 41.539263554697996 2.349815595602
572 1 61.875378887728 39.87769301251 0.0
573 1 1.438962299714 46.523975181261996 2.349815595602
574 1 2.8779245994290004 47.354760452356 0.0
575 1 2.8779245994290004 44.03161936798 2.349815595602
576 1 1.438962299714 44.862404639074 0.0
577 1 4.316886899143 46.523975181261996 2.349815595602
578 1 5.755849198858 47.354760452356 0.0
579 1 5.755849198858 44.03161936798 2.349815595602
580 1 4.316886899143 44.862404639074 0.0
581 1 7.194811498573001 46.523975181261996 2.349815595602
582 1 8.633773798287 47.354760452356 0.0
583 1 8.633773798287 44.03161936798 2.349815595602
584 1 7.194811498573001 44.862404639074 0.0
585 1 10.072736098002 46.523975181261996 2.349815595602
586 1 11.511698397717 47.354760452356 0.0
587 1 11.511698397717 44.03161936798 2.349815595602
588 1 10.072736098002 44.862404639074 0.0
589 1 12.950660697431001 46.523975181261996 2.349815595602
590 1 14.389622997146 47.354760452356 0.0
591 1 14.389622997146 44.03161936798 2.349815595602
592 1 12.950660697431001 44.862404639074 0.0
593 1 15.82858529686 46.523975181261996 2.349815595602
594 1 17.267547596575 47.354760452356 0.0
595 1 17.267547596575 44.03161936798 2.349815595602
596 1 15.82858529686 44.862404639074 0.0
597 1 18.706509896289997 46.523975181261996 2.349815595602
598 1 20.145472196004 47.354760452356 0.0
599 1 20.145472196004 44.03161936798 2.349815595602
600 1 18.706509896289997 44.862404639074 0.0
601 1 21.584434495718998 46.523975181261996 2.349815595602
602 1 23.023396795434 47.354760452356 0.0
603 1 23.023396795434 44.03161936798 2.349815595602
604 1 21.584434495718998 44.862404639074 0.0
605 1 24.462359095148 46.523975181261996 2.349815595602
606 1 25.901321394863 47.354760452356 0.0
607 1 25.901321394863 44.03161936798 2.349815595602
608 1 24.462359095148 44.862404639074 0.0
609 1 27.340283694577 46.523975181261996 2.349815595602
610 1 28.779245994291998 47.354760452356 0.0
611 1 28.779245994291998 44.03161936798 2.349815595602
612 1 27.340283694577 44.862404639074 0.0