 # Fcc Au oriented X=[100] Y=[010] Z=[001].
 
       53568  atoms
           1  atom types
 
0 114 xlo xhi
0 114 ylo yhi
0 114 zlo zhi
 
Masses
 
            1   196.96656900            # Au
 
Atoms # atomic
 
1 1 54.94499999999999 24.419999999999998 0.0
2 1 56.980000000000004 22.385 0.0
3 1 59.015 24.419999999999998 0.0
4 1 50.875 28.49 0.0
5 1 52.91 26.455 0.0
6 1 54.94499999999999 28.49 0.0
7 1 56.980000000000004 26.455 0.0
8 1 59.015 28.49 0.0
9 1 61.05 26.455 0.0
10 1 63.08500000000001 28.49 0.0
11 1 46.80500000000001 32.56 0.0
12 1 48.84 30.525000000000002 0.0
13 1 50.875 32.56 0.0
14 1 52.91 30.525000000000002 0.0
15 1 54.94499999999999 32.56 0.0
16 1 56.980000000000004 30.525000000000002 0.0
17 1 59.015 32.56 0.0
18 1 61.05 30.525000000000002 0.0
19 1 63.08500000000001 32.56 0.0
20 1 65.12 30.525000000000002 0.0
21 1 67.155 32.56 0.0
22 1 42.735 36.629999999999995 0.0
23 1 44.769999999999996 34.595 0.0
24 1 46.80500000000001 36.629999999999995 0.0
25 1 48.84 34.595 0.0
26 1 50.875 36.629999999999995 0.0
27 1 52.91 34.595 0.0
28 1 54.94499999999999 36.629999999999995 0.0
29 1 56.980000000000004 34.595 0.0
30 1 59.015 36.629999999999995 0.0
31 1 61.05 34.595 0.0
32 1 63.08500000000001 36.629999999999995 0.0
33 1 65.12 34.595 0.0
34 1 67.155 36.629999999999995 0.0
35 1 69.19 34.595 0.0
36 1 71.22500000000001 36.629999999999995 0.0
37 1 38.665000000000006 40.7 0.0
38 1 40.7 38.665000000000006 0.0
39 1 42.735 40.7 0.0
40 1 44.769999999999996 38.665000000000006 0.0
41 1 46.80500000000001 40.7 0.0
42 1 48.84 38.665000000000006 0.0
43 1 50.875 40.7 0.0
44 1 52.91 38.665000000000006 0.0
45 1 54.94499999999999 40.7 0.0
46 1 56.980000000000004 38.665000000000006 0.0
47 1 59.015 40.7 0.0
48 1 61.05 38.665000000000006 0.0
49 1 63.08500000000001 40.7 0.0
50 1 65.12 38.665000000000006 0.0
51 1 67.155 40.7 0.0
52 1 69.19 38.665000000000006 0.0
53 1 71.22500000000001 40.7 0.0
54 1 73.26 38.665000000000006 0.0
55 1 75.295 40.7 0.0
56 1 34.595 44.769999999999996 0.0
57 1 36.629999999999995 42.735 0.0
58 1 38.665000000000006 44.769999999999996 0.0
59 1 40.7 42.735 0.0
60 1 42.735 44.769999999999996 0.0
61 1 44.769999999999996 42.735 0.0
62 1 46.80500000000001 44.769999999999996 0.0
63 1 48.84 42.735 0.0
64 1 50.875 44.769999999999996 0.0
65 1 52.91 42.735 0.0
66 1 54.94499999999999 44.769999999999996 0.0
67 1 56.980000000000004 42.735 0.0
68 1 59.015 44.769999999999996 0.0
69 1 61.05 42.735 0.0
70 1 63.08500000000001 44.769999999999996 0.0
71 1 65.12 42.735 0.0
72 1 67.155 44.769999999999996 0.0
73 1 69.19 42.735 0.0
74 1 71.22500000000001 44.769999999999996 0.0
75 1 73.26 42.735 0.0
76 1 75.295 44.769999999999996 0.0
77 1 77.33 42.735 0.0
78 1 79.36500000000001 44.769999999999996 0.0
79 1 30.525000000000002 48.84 0.0
80 1 32.56 46.80500000000001 0.0
81 1 34.595 48.84 0.0
82 1 36.629999999999995 46.80500000000001 0.0
83 1 38.665000000000006 48.84 0.0
84 1 40.7 46.80500000000001 0.0
85 1 42.735 48.84 0.0
86 1 44.769999999999996 46.80500000000001 0.0
87 1 46.80500000000001 48.84 0.0
88 1 48.84 46.80500000000001 0.0
89 1 50.875 48.84 0.0
90 1 52.91 46.80500000000001 0.0
91 1 54.94499999999999 48.84 0.0
92 1 56.980000000000004 46.80500000000001 0.0
93 1 59.015 48.84 0.0
94 1 61.05 46.80500000000001 0.0
95 1 63.08500000000001 48.84 0.0
96 1 65.12 46.80500000000001 0.0
97 1 67.155 48.84 0.0
98 1 69.19 46.80500000000001 0.0
99 1 71.22500000000001 48.84 0.0
100 1 73.26 46.80500000000001 0.0
101 1 75.295 48.84 0.0
102 1 77.33 46.80500000000001 0.0
103 1 79.36500000000001 48.84 0.0
104 1 81.4 46.80500000000001 0.0
105 1 83.435 48.84 0.0
106 1 26.455 52.91 0.0
107 1 28.49 50.875 0.0
108 1 30.525000000000002 52.91 0.0
109 1 32.56 50.875 0.0
110 1 34.595 52.91 0.0
111 1 36.629999999999995 50.875 0.0
112 1 38.665000000000006 52.91 0.0
113 1 40.7 50.875 0.0
114 1 42.735 52.91 0.0
115 1 44.769999999999996 50.875 0.0
116 1 46.80500000000001 52.91 0.0
117 1 48.84 50.875 0.0
118 1 50.875 52.91 0.0
119 1 52.91 50.875 0.0
120 1 54.94499999999999 52.91 0.0
121 1 56.980000000000004 50.875 0.0
122 1 59.015 52.91 0.0
123 1 61.05 50.875 0.0
124 1 63.08500000000001 52.91 0.0
125 1 65.12 50.875 0.0
126 1 67.155 52.91 0.0
127 1 69.19 50.875 0.0
128 1 71.22500000000001 52.91 0.0
129 1 73.26 50.875 0.0
130 1 75.295 52.91 0.0
131 1 77.33 50.875 0.0
132 1 79.36500000000001 52.91 0.0
133 1 81.4 50.875 0.0
134 1 83.435 52.91 0.0
135 1 85.47 50.875 0.0
136 1 87.50500000000001 52.91 0.0
137 1 22.385 56.980000000000004 0.0
138 1 24.419999999999998 54.94499999999999 0.0
139 1 26.455 56.980000000000004 0.0
140 1 28.49 54.94499999999999 0.0
141 1 30.525000000000002 56.980000000000004 0.0
142 1 32.56 54.94499999999999 0.0
143 1 34.595 56.980000000000004 0.0
144 1 36.629999999999995 54.94499999999999 0.0
145 1 38.665000000000006 56.980000000000004 0.0
146 1 40.7 54.94499999999999 0.0
147 1 42.735 56.980000000000004 0.0
148 1 44.769999999999996 54.94499999999999 0.0
149 1 46.80500000000001 56.980000000000004 0.0
150 1 48.84 54.94499999999999 0.0
151 1 50.875 56.980000000000004 0.0
152 1 52.91 54.94499999999999 0.0
153 1 54.94499999999999 56.980000000000004 0.0
154 1 56.980000000000004 54.94499999999999 0.0
155 1 59.015 56.980000000000004 0.0
156 1 61.05 54.94499999999999 0.0
157 1 63.08500000000001 56.980000000000004 0.0
158 1 65.12 54.94499999999999 0.0
159 1 67.155 56.980000000000004 0.0
160 1 69.19 54.94499999999999 0.0
161 1 71.22500000000001 56.980000000000004 0.0
162 1 73.26 54.94499999999999 0.0
163 1 75.295 56.980000000000004 0.0
164 1 77.33 54.94499999999999 0.0
165 1 79.36500000000001 56.980000000000004 0.0
166 1 81.4 54.94499999999999 0.0
167 1 83.435 56.980000000000004 0.0
168 1 85.47 54.94499999999999 0.0
169 1 87.50500000000001 56.980000000000004 0.0
170 1 89.54 54.94499999999999 0.0
171 1 91.575 56.980000000000004 0.0
172 1 24.419999999999998 59.015 0.0
173 1 26.455 61.05 0.0
174 1 28.49 59.015 0.0
175 1 30.525000000000002 61.05 0.0
176 1 32.56 59.015 0.0
177 1 34.595 61.05 0.0
178 1 36.629999999999995 59.015 0.0
179 1 38.665000000000006 61.05 0.0
180 1 40.7 59.015 0.0
181 1 42.735 61.05 0.0
182 1 44.769999999999996 59.015 0.0
183 1 46.80500000000001 61.05 0.0
184 1 48.84 59.015 0.0
185 1 50.875 61.05 0.0
186 1 52.91 59.015 0.0
187 1 54.94499999999999 61.05 0.0
188 1 56.980000000000004 59.015 0.0
189 1 59.015 61.05 0.0
190 1 61.05 59.015 0.0
191 1 63.08500000000001 61.05 0.0
192 1 65.12 59.015 0.0
193 1 67.155 61.05 0.0
194 1 69.19 59.015 0.0
195 1 71.22500000000001 61.05 0.0
196 1 73.26 59.015 0.0
197 1 75.295 61.05 0.0
198 1 77.33 59.015 0.0
199 1 79.36500000000001 61.05 0.0
200 1 81.4 59.015 0.0
201 1 83.435 61.05 0.0
202 1 85.47 59.015 0.0
203 1 87.50500000000001 61.05 0.0
204 1 89.54 59.015 0.0
205 1 28.49 63.08500000000001 0.0
206 1 30.525000000000002 65.12 0.0
207 1 32.56 63.08500000000001 0.0
208 1 34.595 65.12 0.0
209 1 36.629999999999995 63.08500000000001 0.0
210 1 38.665000000000006 65.12 0.0
211 1 40.7 63.08500000000001 0.0
212 1 42.735 65.12 0.0
213 1 44.769999999999996 63.08500000000001 0.0
214 1 46.80500000000001 65.12 0.0
215 1 48.84 63.08500000000001 0.0
216 1 50.875 65.12 0.0
217 1 52.91 63.08500000000001 0.0
218 1 54.94499999999999 65.12 0.0
219 1 56.980000000000004 63.08500000000001 0.0
220 1 59.015 65.12 0.0
221 1 61.05 63.08500000000001 0.0
222 1 63.08500000000001 65.12 0.0
223 1 65.12 63.08500000000001 0.0
224 1 67.155 65.12 0.0
225 1 69.19 63.08500000000001 0.0
226 1 71.22500000000001 65.12 0.0
227 1 73.26 63.08500000000001 0.0
228 1 75.295 65.12 0.0
229 1 77.33 63.08500000000001 0.0
230 1 79.36500000000001 65.12 0.0
231 1 81.4 63.08500000000001 0.0
232 1 83.435 65.12 0.0
233 1 85.47 63.08500000000001 0.0
234 1 32.56 67.155 0.0
235 1 34.595 69.19 0.0
236 1 36.629999999999995 67.155 0.0
237 1 38.665000000000006 69.19 0.0
238 1 40.7 67.155 0.0
239 1 42.735 69.19 0.0
240 1 44.769999999999996 67.155 0.0
241 1 46.80500000000001 69.19 0.0
242 1 48.84 67.155 0.0
243 1 50.875 69.19 0.0
244 1 52.91 67.155 0.0
245 1 54.94499999999999 69.19 0.0
246 1 56.980000000000004 67.155 0.0
247 1 59.015 69.19 0.0
248 1 61.05 67.155 0.0
249 1 63.08500000000001 69.19 0.0
250 1 65.12 67.155 0.0
251 1 67.155 69.19 0.0
252 1 69.19 67.155 0.0
253 1 71.22500000000001 69.19 0.0
254 1 73.26 67.155 0.0
255 1 75.295 69.19 0.0
256 1 77.33 67.155 0.0
257 1 79.36500000000001 69.19 0.0
258 1 81.4 67.155 0.0
259 1 36.629999999999995 71.22500000000001 0.0
260 1 38.665000000000006 73.26 0.0
261 1 40.7 71.22500000000001 0.0
262 1 42.735 73.26 0.0
263 1 44.769999999999996 71.22500000000001 0.0
264 1 46.80500000000001 73.26 0.0
265 1 48.84 71.22500000000001 0.0
266 1 50.875 73.26 0.0
267 1 52.91 71.22500000000001 0.0
268 1 54.94499999999999 73.26 0.0
269 1 56.980000000000004 71.22500000000001 0.0
270 1 59.015 73.26 0.0
271 1 61.05 71.22500000000001 0.0
272 1 63.08500000000001 73.26 0.0
273 1 65.12 71.22500000000001 0.0
274 1 67.155 73.26 0.0
275 1 69.19 71.22500000000001 0.0
276 1 71.22500000000001 73.26 0.0
277 1 73.26 71.22500000000001 0.0
278 1 75.295 73.26 0.0
279 1 77.33 71.22500000000001 0.0
280 1 40.7 75.295 0.0
281 1 42.735 77.33 0.0
282 1 44.769999999999996 75.295 0.0
283 1 46.80500000000001 77.33 0.0
284 1 48.84 75.295 0.0
285 1 50.875 77.33 0.0
286 1 52.91 75.295 0.0
287 1 54.94499999999999 77.33 0.0
288 1 56.980000000000004 75.295 0.0
289 1 59.015 77.33 0.0
290 1 61.05 75.295 0.0
291 1 63.08500000000001 77.33 0.0
292 1 65.12 75.295 0.0
293 1 67.155 77.33 0.0
294 1 69.19 75.295 0.0
295 1 71.22500000000001 77.33 0.0
296 1 73.26 75.295 0.0
297 1 44.769999999999996 79.36500000000001 0.0
298 1 46.80500000000001 81.4 0.0
299 1 48.84 79.36500000000001 0.0
300 1 50.875 81.4 0.0
301 1 52.91 79.36500000000001 0.0
302 1 54.94499999999999 81.4 0.0
303 1 56.980000000000004 79.36500000000001 0.0
304 1 59.015 81.4 0.0
305 1 61.05 79.36500000000001 0.0
306 1 63.08500000000001 81.4 0.0
307 1 65.12 79.36500000000001 0.0
308 1 67.155 81.4 0.0
309 1 69.19 79.36500000000001 0.0
310 1 48.84 83.435 0.0
311 1 50.875 85.47 0.0
312 1 52.91 83.435 0.0
313 1 54.94499999999999 85.47 0.0
314 1 56.980000000000004 83.435 0.0
315 1 59.015 85.47 0.0
316 1 61.05 83.435 0.0
317 1 63.08500000000001 85.47 0.0
318 1 65.12 83.435 0.0
319 1 52.91 87.50500000000001 0.0
320 1 54.94499999999999 89.54 0.0
321 1 56.980000000000004 87.50500000000001 0.0
322 1 59.015 89.54 0.0
323 1 61.05 87.50500000000001 0.0
324 1 56.980000000000004 91.575 0.0
325 1 56.980000000000004 20.35 2.035
326 1 56.980000000000004 18.315 4.07
327 1 59.015 20.35 4.07
328 1 52.91 24.419999999999998 2.035
329 1 50.875 24.419999999999998 4.07
330 1 56.980000000000004 24.419999999999998 2.035
331 1 54.94499999999999 24.419999999999998 4.07
332 1 56.980000000000004 22.385 4.07
333 1 59.015 22.385 2.035
334 1 61.05 24.419999999999998 2.035
335 1 59.015 24.419999999999998 4.07
336 1 61.05 22.385 4.07
337 1 63.08500000000001 24.419999999999998 4.07
338 1 48.84 28.49 2.035
339 1 46.80500000000001 28.49 4.07
340 1 48.84 26.455 4.07
341 1 50.875 26.455 2.035
342 1 52.91 28.49 2.035
343 1 50.875 28.49 4.07
344 1 52.91 26.455 4.07
345 1 54.94499999999999 26.455 2.035
346 1 56.980000000000004 28.49 2.035
347 1 54.94499999999999 28.49 4.07
348 1 56.980000000000004 26.455 4.07
349 1 59.015 26.455 2.035
350 1 61.05 28.49 2.035
351 1 59.015 28.49 4.07
352 1 61.05 26.455 4.07
353 1 63.08500000000001 26.455 2.035
354 1 65.12 28.49 2.035
355 1 63.08500000000001 28.49 4.07
356 1 65.12 26.455 4.07
357 1 67.155 28.49 4.07
358 1 44.769999999999996 32.56 2.035
359 1 42.735 32.56 4.07
360 1 44.769999999999996 30.525000000000002 4.07
361 1 46.80500000000001 30.525000000000002 2.035
362 1 48.84 32.56 2.035
363 1 46.80500000000001 32.56 4.07
364 1 48.84 30.525000000000002 4.07
365 1 50.875 30.525000000000002 2.035
366 1 52.91 32.56 2.035
367 1 50.875 32.56 4.07
368 1 52.91 30.525000000000002 4.07
369 1 54.94499999999999 30.525000000000002 2.035
370 1 56.980000000000004 32.56 2.035
371 1 54.94499999999999 32.56 4.07
372 1 56.980000000000004 30.525000000000002 4.07
373 1 59.015 30.525000000000002 2.035
374 1 61.05 32.56 2.035
375 1 59.015 32.56 4.07
376 1 61.05 30.525000000000002 4.07
377 1 63.08500000000001 30.525000000000002 2.035
378 1 65.12 32.56 2.035
379 1 63.08500000000001 32.56 4.07
380 1 65.12 30.525000000000002 4.07
381 1 67.155 30.525000000000002 2.035
382 1 69.19 32.56 2.035
383 1 67.155 32.56 4.07
384 1 69.19 30.525000000000002 4.07
385 1 71.22500000000001 32.56 4.07
386 1 40.7 36.629999999999995 2.035
387 1 38.665000000000006 36.629999999999995 4.07
388 1 40.7 34.595 4.07
389 1 42.735 34.595 2.035
390 1 44.769999999999996 36.629999999999995 2.035
391 1 42.735 36.629999999999995 4.07
392 1 44.769999999999996 34.595 4.07
393 1 46.80500000000001 34.595 2.035
394 1 48.84 36.629999999999995 2.035
395 1 46.80500000000001 36.629999999999995 4.07
396 1 48.84 34.595 4.07
397 1 50.875 34.595 2.035
398 1 52.91 36.629999999999995 2.035
399 1 50.875 36.629999999999995 4.07
400 1 52.91 34.595 4.07
401 1 54.94499999999999 34.595 2.035
402 1 56.980000000000004 36.629999999999995 2.035
403 1 54.94499999999999 36.629999999999995 4.07
404 1 56.980000000000004 34.595 4.07
405 1 59.015 34.595 2.035
406 1 61.05 36.629999999999995 2.035
407 1 59.015 36.629999999999995 4.07
408 1 61.05 34.595 4.07
409 1 63.08500000000001 34.595 2.035
410 1 65.12 36.629999999999995 2.035
411 1 63.08500000000001 36.629999999999995 4.07
412 1 65.12 34.595 4.07
413 1 67.155 34.595 2.035
414 1 69.19 36.629999999999995 2.035
415 1 67.155 36.629999999999995 4.07
416 1 69.19 34.595 4.07
417 1 71.22500000000001 34.595 2.035
418 1 73.26 36.629999999999995 2.035
419 1 71.22500000000001 36.629999999999995 4.07
420 1 73.26 34.595 4.07
421 1 75.295 36.629999999999995 4.07
422 1 36.629999999999995 40.7 2.035
423 1 34.595 40.7 4.07
424 1 36.629999999999995 38.665000000000006 4.07
425 1 38.665000000000006 38.665000000000006 2.035
426 1 40.7 40.7 2.035
427 1 38.665000000000006 40.7 4.07
428 1 40.7 38.665000000000006 4.07
429 1 42.735 38.665000000000006 2.035
430 1 44.769999999999996 40.7 2.035
431 1 42.735 40.7 4.07
432 1 44.769999999999996 38.665000000000006 4.07
433 1 46.80500000000001 38.665000000000006 2.035
434 1 48.84 40.7 2.035
435 1 46.80500000000001 40.7 4.07
436 1 48.84 38.665000000000006 4.07
437 1 50.875 38.665000000000006 2.035
438 1 52.91 40.7 2.035
439 1 50.875 40.7 4.07
440 1 52.91 38.665000000000006 4.07
441 1 54.94499999999999 38.665000000000006 2.035
442 1 56.980000000000004 40.7 2.035
443 1 54.94499999999999 40.7 4.07
444 1 56.980000000000004 38.665000000000006 4.07
445 1 59.015 38.665000000000006 2.035
446 1 61.05 40.7 2.035
447 1 59.015 40.7 4.07
448 1 61.05 38.665000000000006 4.07
449 1 63.08500000000001 38.665000000000006 2.035
450 1 65.12 40.7 2.035
451 1 63.08500000000001 40.7 4.07
452 1 65.12 38.665000000000006 4.07
453 1 67.155 38.665000000000006 2.035
454 1 69.19 40.7 2.035
455 1 67.155 40.7 4.07
456 1 69.19 38.665000000000006 4.07
457 1 71.22500000000001 38.665000000000006 2.035
458 1 73.26 40.7 2.035
459 1 71.22500000000001 40.7 4.07
460 1 73.26 38.665000000000006 4.07
461 1 75.295 38.665000000000006 2.035
462 1 77.33 40.7 2.035
463 1 75.295 40.7 4.07
464 1 77.33 38.665000000000006 4.07
465 1 79.36500000000001 40.7 4.07
466 1 32.56 44.769999999999996 2.035
467 1 30.525000000000002 44.769999999999996 4.07
468 1 32.56 42.735 4.07
469 1 34.595 42.735 2.035
470 1 36.629999999999995 44.769999999999996 2.035
471 1 34.595 44.769999999999996 4.07
472 1 36.629999999999995 42.735 4.07
473 1 38.665000000000006 42.735 2.035
474 1 40.7 44.769999999999996 2.035
475 1 38.665000000000006 44.769999999999996 4.07
476 1 40.7 42.735 4.07
477 1 42.735 42.735 2.035
478 1 44.769999999999996 44.769999999999996 2.035
479 1 42.735 44.769999999999996 4.07
480 1 44.769999999999996 42.735 4.07
481 1 46.80500000000001 42.735 2.035
482 1 48.84 44.769999999999996 2.035
483 1 46.80500000000001 44.769999999999996 4.07
484 1 48.84 42.735 4.07
485 1 50.875 42.735 2.035
486 1 52.91 44.769999999999996 2.035
487 1 50.875 44.769999999999996 4.07
488 1 52.91 42.735 4.07
489 1 54.94499999999999 42.735 2.035
490 1 56.980000000000004 44.769999999999996 2.035
491 1 54.94499999999999 44.769999999999996 4.07
492 1 56.980000000000004 42.735 4.07
493 1 59.015 42.735 2.035
494 1 61.05 44.769999999999996 2.035
495 1 59.015 44.769999999999996 4.07
496 1 61.05 42.735 4.07
497 1 63.08500000000001 42.735 2.035
498 1 65.12 44.769999999999996 2.035
499 1 63.08500000000001 44.769999999999996 4.07
500 1 65.12 42.735 4.07
501 1 67.155 42.735 2.035
502 1 69.19 44.769999999999996 2.035
503 1 67.155 44.769999999999996 4.07
504 1 69.19 42.735 4.07
505 1 71.22500000000001 42.735 2.035
506 1 73.26 44.769999999999996 2.035
507 1 71.22500000000001 44.769999999999996 4.07
508 1 73.26 42.735 4.07
509 1 75.295 42.735 2.035
510 1 77.33 44.769999999999996 2.035
511 1 75.295 44.769999999999996 4.07
512 1 77.33 42.735 4.07
513 1 79.36500000000001 42.735 2.035
514 1 81.4 44.769999999999996 2.035
515 1 79.36500000000001 44.769999999999996 4.07
516 1 81.4 42.735 4.07
517 1 83.435 44.769999999999996 4.07
518 1 28.49 48.84 2.035
519 1 26.455 48.84 4.07
520 1 28.49 46.80500000000001 4.07
521 1 30.525000000000002 46.80500000000001 2.035
522 1 32.56 48.84 2.035
523 1 30.525000000000002 48.84 4.07
524 1 32.56 46.80500000000001 4.07
525 1 34.595 46.80500000000001 2.035
526 1 36.629999999999995 48.84 2.035
527 1 34.595 48.84 4.07
528 1 36.629999999999995 46.80500000000001 4.07
529 1 38.665000000000006 46.80500000000001 2.035
530 1 40.7 48.84 2.035
531 1 38.665000000000006 48.84 4.07
532 1 40.7 46.80500000000001 4.07
533 1 42.735 46.80500000000001 2.035
534 1 44.769999999999996 48.84 2.035
535 1 42.735 48.84 4.07
536 1 44.769999999999996 46.80500000000001 4.07
537 1 46.80500000000001 46.80500000000001 2.035
538 1 48.84 48.84 2.035
539 1 46.80500000000001 48.84 4.07
540 1 48.84 46.80500000000001 4.07
541 1 50.875 46.80500000000001 2.035
542 1 52.91 48.84 2.035
543 1 50.875 48.84 4.07
544 1 52.91 46.80500000000001 4.07
545 1 54.94499999999999 46.80500000000001 2.035
546 1 56.980000000000004 48.84 2.035
547 1 54.94499999999999 48.84 4.07
548 1 56.980000000000004 46.80500000000001 4.07
549 1 59.015 46.80500000000001 2.035
550 1 61.05 48.84 2.035
551 1 59.015 48.84 4.07
552 1 61.05 46.80500000000001 4.07
553 1 63.08500000000001 46.80500000000001 2.035
554 1 65.12 48.84 2.035
555 1 63.08500000000001 48.84 4.07
556 1 65.12 46.80500000000001 4.07
557 1 67.155 46.80500000000001 2.035
558 1 69.19 48.84 2.035
559 1 67.155 48.84 4.07
560 1 69.19 46.80500000000001 4.07
561 1 71.22500000000001 46.80500000000001 2.035
562 1 73.26 48.84 2.035
563 1 71.22500000000001 48.84 4.07
564 1 73.26 46.80500000000001 4.07
565 1 75.295 46.80500000000001 2.035
566 1 77.33 48.84 2.035
567 1 75.295 48.84 4.07
568 1 77.33 46.80500000000001 4.07
569 1 79.36500000000001 46.80500000000001 2.035
570 1 81.4 48.84 2.035
571 1 79.36500000000001 48.84 4.07
572 1 81.4 46.80500000000001 4.07
573 1 83.435 46.80500000000001 2.035
574 1 85.47 48.84 2.035
575 1 83.435 48.84 4.07
576 1 85.47 46.80500000000001 4.07
577 1 87.50500000000001 48.84 4.07
578 1 24.419999999999998 52.91 2.035
579 1 22.385 52.91 4.07
580 1 24.419999999999998 50.875 4.07
581 1 26.455 50.875 2.035
582 1 28.49 52.91 2.035
583 1 26.455 52.91 4.07
584 1 28.49 50.875 4.07
585 1 30.525000000000002 50.875 2.035
586 1 32.56 52.91 2.035
587 1 30.525000000000002 52.91 4.07
588 1 32.56 50.875 4.07
589 1 34.595 50.875 2.035
590 1 36.629999999999995 52.91 2.035
591 1 34.595 52.91 4.07
592 1 36.629999999999995 50.875 4.07
593 1 38.665000000000006 50.875 2.035
594 1 40.7 52.91 2.035
595 1 38.665000000000006 52.91 4.07
596 1 40.7 50.875 4.07
597 1 42.735 50.875 2.035
598 1 44.769999999999996 52.91 2.035
599 1 42.735 52.91 4.07
600 1 44.769999999999996 50.875 4.07
601 1 46.80500000000001 50.875 2.035
602 1 48.84 52.91 2.035
603 1 46.80500000000001 52.91 4.07
604 1 48.84 50.875 4.07
605 1 50.875 50.875 2.035
606 1 52.91 52.91 2.035
607 1 50.875 52.91 4.07
608 1 52.91 50.875 4.07
609 1 54.94499999999999 50.875 2.035
610 1 56.980000000000004 52.91 2.035
611 1 54.94499999999999 52.91 4.07
612 1 56.980000000000004 50.875 4.07
613 1 59.015 50.875 2.035
614 1 61.05 52.91 2.035
615 1 59.015 52.91 4.07
616 1 61.05 50.875 4.07
617 1 63.08500000000001 50.875 2.035
618 1 65.12 52.91 2.035
619 1 63.08500000000001 52.91 4.07
620 1 65.12 50.875 4.07
621 1 67.155 50.875 2.035
622 1 69.19 52.91 2.035
623 1 67.155 52.91 4.07
624 1 69.19 50.875 4.07
625 1 71.22500000000001 50.875 2.035
626 1 73.26 52.91 2.035
627 1 71.22500000000001 52.91 4.07
628 1 73.26 50.875 4.07
629 1 75.295 50.875 2.035
630 1 77.33 52.91 2.035
631 1 75.295 52.91 4.07
632 1 77.33 50.875 4.07
633 1 79.36500000000001 50.875 2.035
634 1 81.4 52.91 2.035
635 1 79.36500000000001 52.91 4.07
636 1 81.4 50.875 4.07
637 1 83.435 50.875 2.035
638 1 85.47 52.91 2.035
639 1 83.435 52.91 4.07
640 1 85.47 50.875 4.07
641 1 87.50500000000001 50.875 2.035
642 1 89.54 52.91 2.035
643 1 87.50500000000001 52.91 4.07
644 1 89.54 50.875 4.07
645 1 91.575 52.91 4.07
646 1 20.35 56.980000000000004 2.035
647 1 18.315 56.980000000000004 4.07
648 1 20.35 54.94499999999999 4.07
649 1 22.385 54.94499999999999 2.035
650 1 24.419999999999998 56.980000000000004 2.035
651 1 22.385 56.980000000000004 4.07
652 1 24.419999999999998 54.94499999999999 4.07
653 1 26.455 54.94499999999999 2.035
654 1 28.49 56.980000000000004 2.035
655 1 26.455 56.980000000000004 4.07
656 1 28.49 54.94499999999999 4.07
657 1 30.525000000000002 54.94499999999999 2.035
658 1 32.56 56.980000000000004 2.035
659 1 30.525000000000002 56.980000000000004 4.07
660 1 32.56 54.94499999999999 4.07
661 1 34.595 54.94499999999999 2.035
662 1 36.629999999999995 56.980000000000004 2.035
663 1 34.595 56.980000000000004 4.07
664 1 36.629999999999995 54.94499999999999 4.07
665 1 38.665000000000006 54.94499999999999 2.035
666 1 40.7 56.980000000000004 2.035
667 1 38.665000000000006 56.980000000000004 4.07
668 1 40.7 54.94499999999999 4.07
669 1 42.735 54.94499999999999 2.035
670 1 44.769999999999996 56.980000000000004 2.035
671 1 42.735 56.980000000000004 4.07
672 1 44.769999999999996 54.94499999999999 4.07
673 1 46.80500000000001 54.94499999999999 2.035
674 1 48.84 56.980000000000004 2.035
675 1 46.80500000000001 56.980000000000004 4.07
676 1 48.84 54.94499999999999 4.07
677 1 50.875 54.94499999999999 2.035
678 1 52.91 56.980000000000004 2.035
679 1 50.875 56.980000000000004 4.07
680 1 52.91 54.94499999999999 4.07
681 1 54.94499999999999 54.94499999999999 2.035
682 1 56.980000000000004 56.980000000000004 2.035
683 1 54.94499999999999 56.980000000000004 4.07
684 1 56.980000000000004 54.94499999999999 4.07
685 1 59.015 54.94499999999999 2.035
686 1 61.05 56.980000000000004 2.035
687 1 59.015 56.980000000000004 4.07
688 1 61.05 54.94499999999999 4.07
689 1 63.08500000000001 54.94499999999999 2.035
690 1 65.12 56.980000000000004 2.035
691 1 63.08500000000001 56.980000000000004 4.07
692 1 65.12 54.94499999999999 4.07
693 1 67.155 54.94499999999999 2.035
694 1 69.19 56.980000000000004 2.035
695 1 67.155 56.980000000000004 4.07
696 1 69.19 54.94499999999999 4.07
697 1 71.22500000000001 54.94499999999999 2.035
698 1 73.26 56.980000000000004 2.035
699 1 71.22500000000001 56.980000000000004 4.07
700 1 73.26 54.94499999999999 4.07
701 1 75.295 54.94499999999999 2.035
702 1 77.33 56.980000000000004 2.035
703 1 75.295 56.980000000000004 4.07
704 1 77.33 54.94499999999999 4.07
705 1 79.36500000000001 54.94499999999999 2.035
706 1 81.4 56.980000000000004 2.035
707 1 79.36500000000001 56.980000000000004 4.07
708 1 81.4 54.94499999999999 4.07
709 1 83.435 54.94499999999999 2.035
710 1 85.47 56.980000000000004 2.035
711 1 83.435 56.980000000000004 4.07
712 1 85.47 54.94499999999999 4.07
713 1 87.50500000000001 54.94499999999999 2.035
714 1 89.54 56.980000000000004 2.035
715 1 87.50500000000001 56.980000000000004 4.07
716 1 89.54 54.94499999999999 4.07
717 1 91.575 54.94499999999999 2.035
718 1 93.61 56.980000000000004 2.035
719 1 91.575 56.980000000000004 4.07
720 1 93.61 54.94499999999999 4.07
721 1 95.64500000000001 56.980000000000004 4.07
722 1 20.35 59.015 4.07
723 1 22.385 59.015 2.035
724 1 24.419999999999998 61.05 2.035
725 1 22.385 61.05 4.07
726 1 24.419999999999998 59.015 4.07
727 1 26.455 59.015 2.035
728 1 28.49 61.05 2.035
729 1 26.455 61.05 4.07
730 1 28.49 59.015 4.07
731 1 30.525000000000002 59.015 2.035
732 1 32.56 61.05 2.035
733 1 30.525000000000002 61.05 4.07
734 1 32.56 59.015 4.07
735 1 34.595 59.015 2.035
736 1 36.629999999999995 61.05 2.035
737 1 34.595 61.05 4.07
738 1 36.629999999999995 59.015 4.07
739 1 38.665000000000006 59.015 2.035
740 1 40.7 61.05 2.035
741 1 38.665000000000006 61.05 4.07
742 1 40.7 59.015 4.07
743 1 42.735 59.015 2.035
744 1 44.769999999999996 61.05 2.035
745 1 42.735 61.05 4.07
746 1 44.769999999999996 59.015 4.07
747 1 46.80500000000001 59.015 2.035
748 1 48.84 61.05 2.035
749 1 46.80500000000001 61.05 4.07
750 1 48.84 59.015 4.07
751 1 50.875 59.015 2.035
752 1 52.91 61.05 2.035
753 1 50.875 61.05 4.07
754 1 52.91 59.015 4.07
755 1 54.94499999999999 59.015 2.035
756 1 56.980000000000004 61.05 2.035
757 1 54.94499999999999 61.05 4.07
758 1 56.980000000000004 59.015 4.07
759 1 59.015 59.015 2.035
760 1 61.05 61.05 2.035
761 1 59.015 61.05 4.07
762 1 61.05 59.015 4.07
763 1 63.08500000000001 59.015 2.035
764 1 65.12 61.05 2.035
765 1 63.08500000000001 61.05 4.07
766 1 65.12 59.015 4.07
767 1 67.155 59.015 2.035
768 1 69.19 61.05 2.035
769 1 67.155 61.05 4.07
770 1 69.19 59.015 4.07
771 1 71.22500000000001 59.015 2.035
772 1 73.26 61.05 2.035
773 1 71.22500000000001 61.05 4.07
774 1 73.26 59.015 4.07
775 1 75.295 59.015 2.035
776 1 77.33 61.05 2.035
777 1 75.295 61.05 4.07
778 1 77.33 59.015 4.07
779 1 79.36500000000001 59.015 2.035
780 1 81.4 61.05 2.035
781 1 79.36500000000001 61.05 4.07
782 1 81.4 59.015 4.07
783 1 83.435 59.015 2.035
784 1 85.47 61.05 2.035
785 1 83.435 61.05 4.07
786 1 85.47 59.015 4.07
787 1 87.50500000000001 59.015 2.035
788 1 89.54 61.05 2.035
789 1 87.50500000000001 61.05 4.07
790 1 89.54 59.015 4.07
791 1 91.575 59.015 2.035
792 1 91.575 61.05 4.07
793 1 93.61 59.015 4.07
794 1 24.419999999999998 63.08500000000001 4.07
795 1 26.455 63.08500000000001 2.035
796 1 28.49 65.12 2.035
797 1 26.455 65.12 4.07
798 1 28.49 63.08500000000001 4.07
799 1 30.525000000000002 63.08500000000001 2.035
800 1 32.56 65.12 2.035
801 1 30.525000000000002 65.12 4.07
802 1 32.56 63.08500000000001 4.07
803 1 34.595 63.08500000000001 2.035
804 1 36.629999999999995 65.12 2.035
805 1 34.595 65.12 4.07
806 1 36.629999999999995 63.08500000000001 4.07
807 1 38.665000000000006 63.08500000000001 2.035
808 1 40.7 65.12 2.035
809 1 38.665000000000006 65.12 4.07
810 1 40.7 63.08500000000001 4.07
811 1 42.735 63.08500000000001 2.035
812 1 44.769999999999996 65.12 2.035
813 1 42.735 65.12 4.07
814 1 44.769999999999996 63.08500000000001 4.07
815 1 46.80500000000001 63.08500000000001 2.035
816 1 48.84 65.12 2.035
817 1 46.80500000000001 65.12 4.07
818 1 48.84 63.08500000000001 4.07
819 1 50.875 63.08500000000001 2.035
820 1 52.91 65.12 2.035
821 1 50.875 65.12 4.07
822 1 52.91 63.08500000000001 4.07
823 1 54.94499999999999 63.08500000000001 2.035
824 1 56.980000000000004 65.12 2.035
825 1 54.94499999999999 65.12 4.07
826 1 56.980000000000004 63.08500000000001 4.07
827 1 59.015 63.08500000000001 2.035
828 1 61.05 65.12 2.035
829 1 59.015 65.12 4.07
830 1 61.05 63.08500000000001 4.07
831 1 63.08500000000001 63.08500000000001 2.035
832 1 65.12 65.12 2.035
833 1 63.08500000000001 65.12 4.07
834 1 65.12 63.08500000000001 4.07
835 1 67.155 63.08500000000001 2.035
836 1 69.19 65.12 2.035
837 1 67.155 65.12 4.07
838 1 69.19 63.08500000000001 4.07
839 1 71.22500000000001 63.08500000000001 2.035
840 1 73.26 65.12 2.035
841 1 71.22500000000001 65.12 4.07
842 1 73.26 63.08500000000001 4.07
843 1 75.295 63.08500000000001 2.035
844 1 77.33 65.12 2.035
845 1 75.295 65.12 4.07
846 1 77.33 63.08500000000001 4.07
847 1 79.36500000000001 63.08500000000001 2.035
848 1 81.4 65.12 2.035
849 1 79.36500000000001 65.12 4.07
850 1 81.4 63.08500000000001 4.07
851 1 83.435 63.08500000000001 2.035
852 1 85.47 65.12 2.035
853 1 83.435 65.12 4.07
854 1 85.47 63.08500000000001 4.07
855 1 87.50500000000001 63.08500000000001 2.035
856 1 87.50500000000001 65.12 4.07
857 1 89.54 63.08500000000001 4.07
858 1 28.49 67.155 4.07
859 1 30.525000000000002 67.155 2.035
860 1 32.56 69.19 2.035
861 1 30.525000000000002 69.19 4.07
862 1 32.56 67.155 4.07
863 1 34.595 67.155 2.035
864 1 36.629999999999995 69.19 2.035
865 1 34.595 69.19 4.07
866 1 36.629999999999995 67.155 4.07
867 1 38.665000000000006 67.155 2.035
868 1 40.7 69.19 2.035
869 1 38.665000000000006 69.19 4.07
870 1 40.7 67.155 4.07
871 1 42.735 67.155 2.035
872 1 44.769999999999996 69.19 2.035
873 1 42.735 69.19 4.07
874 1 44.769999999999996 67.155 4.07
875 1 46.80500000000001 67.155 2.035
876 1 48.84 69.19 2.035
877 1 46.80500000000001 69.19 4.07
878 1 48.84 67.155 4.07
879 1 50.875 67.155 2.035
880 1 52.91 69.19 2.035
881 1 50.875 69.19 4.07
882 1 52.91 67.155 4.07
883 1 54.94499999999999 67.155 2.035
884 1 56.980000000000004 69.19 2.035
885 1 54.94499999999999 69.19 4.07
886 1 56.980000000000004 67.155 4.07
887 1 59.015 67.155 2.035
888 1 61.05 69.19 2.035
889 1 59.015 69.19 4.07
890 1 61.05 67.155 4.07
891 1 63.08500000000001 67.155 2.035
892 1 65.12 69.19 2.035
893 1 63.08500000000001 69.19 4.07
894 1 65.12 67.155 4.07
895 1 67.155 67.155 2.035
896 1 69.19 69.19 2.035
897 1 67.155 69.19 4.07
898 1 69.19 67.155 4.07
899 1 71.22500000000001 67.155 2.035
900 1 73.26 69.19 2.035
901 1 71.22500000000001 69.19 4.07
902 1 73.26 67.155 4.07
903 1 75.295 67.155 2.035
904 1 77.33 69.19 2.035
905 1 75.295 69.19 4.07
906 1 77.33 67.155 4.07
907 1 79.36500000000001 67.155 2.035
908 1 81.4 69.19 2.035
909 1 79.36500000000001 69.19 4.07
910 1 81.4 67.155 4.07
911 1 83.435 67.155 2.035
912 1 83.435 69.19 4.07
913 1 85.47 67.155 4.07
914 1 32.56 71.22500000000001 4.07
915 1 34.595 71.22500000000001 2.035
916 1 36.629999999999995 73.26 2.035